 VARIABLES = "X", "Y", "U", "V", "P", "RHO", "C_f" 
 ZONE I=          81 , J=          31 , DATAPACKING=BLOCK
   0.0000000000000000E+00   0.1250000018626451E-01   0.2500000037252903E-01   0.3750000149011612E-01   0.5000000074505806E-01   0.6250000000000000E-01   0.7500000298023224E-01   0.8749999850988388E-01   0.1000000014901161E+00   0.1125000044703484E+00   0.1250000000000000E+00   0.1375000029802322E+00   0.1500000059604645E+00   0.1625000089406967E+00   0.1749999970197678E+00   0.1875000000000000E+00   0.2000000029802322E+00   0.2125000059604645E+00   0.2250000089406967E+00   0.2374999970197678E+00   0.2500000000000000E+00   0.2625000178813934E+00   0.2750000059604645E+00   0.2874999940395355E+00   0.3000000119209290E+00   0.3125000000000000E+00   0.3250000178813934E+00   0.3375000059604645E+00   0.3499999940395355E+00   0.3625000119209290E+00   0.3750000000000000E+00   0.3875000178813934E+00   0.4000000059604645E+00   0.4124999940395355E+00   0.4250000119209290E+00   0.4375000000000000E+00   0.4500000178813934E+00   0.4625000059604645E+00   0.4749999940395355E+00   0.4875000119209290E+00   0.5000000000000000E+00   0.5124999880790710E+00   0.5250000357627869E+00   0.5375000238418579E+00   0.5500000119209290E+00   0.5625000000000000E+00   0.5749999880790710E+00   0.5875000357627869E+00   0.6000000238418579E+00   0.6125000119209290E+00   0.6250000000000000E+00   0.6374999880790710E+00   0.6500000357627869E+00   0.6625000238418579E+00   0.6750000119209290E+00   0.6875000000000000E+00   0.6999999880790710E+00   0.7125000357627869E+00   0.7250000238418579E+00   0.7375000119209290E+00   0.7500000000000000E+00   0.7624999880790710E+00   0.7750000357627869E+00   0.7875000238418579E+00   0.8000000119209290E+00   0.8125000000000000E+00   0.8249999880790710E+00   0.8375000357627869E+00   0.8500000238418579E+00   0.8625000119209290E+00   0.8750000000000000E+00   0.8874999880790710E+00   0.9000000357627869E+00   0.9125000238418579E+00   0.9250000119209290E+00   0.9375000000000000E+00   0.9499999880790710E+00   0.9625000357627869E+00   0.9750000238418579E+00   0.9875000119209290E+00   0.1000000000000000E+01   0.0000000000000000E+00   0.1250000018626451E-01   0.2500000037252903E-01   0.3750000149011612E-01   0.5000000074505806E-01   0.6250000000000000E-01   0.7500000298023224E-01   0.8749999850988388E-01   0.1000000014901161E+00   0.1125000044703484E+00   0.1250000000000000E+00   0.1375000029802322E+00   0.1500000059604645E+00   0.1625000089406967E+00   0.1749999970197678E+00   0.1875000000000000E+00   0.2000000029802322E+00   0.2125000059604645E+00   0.2250000089406967E+00
   0.2374999970197678E+00   0.2500000000000000E+00   0.2625000178813934E+00   0.2750000059604645E+00   0.2874999940395355E+00   0.3000000119209290E+00   0.3125000000000000E+00   0.3250000178813934E+00   0.3375000059604645E+00   0.3499999940395355E+00   0.3625000119209290E+00   0.3750000000000000E+00   0.3875000178813934E+00   0.4000000059604645E+00   0.4124999940395355E+00   0.4250000119209290E+00   0.4375000000000000E+00   0.4500000178813934E+00   0.4625000059604645E+00   0.4749999940395355E+00   0.4875000119209290E+00   0.5000000000000000E+00   0.5124999880790710E+00   0.5250000357627869E+00   0.5375000238418579E+00   0.5500000119209290E+00   0.5625000000000000E+00   0.5749999880790710E+00   0.5875000357627869E+00   0.6000000238418579E+00   0.6125000119209290E+00   0.6250000000000000E+00   0.6374999880790710E+00   0.6500000357627869E+00   0.6625000238418579E+00   0.6750000119209290E+00   0.6875000000000000E+00   0.6999999880790710E+00   0.7125000357627869E+00   0.7250000238418579E+00   0.7375000119209290E+00   0.7500000000000000E+00   0.7624999880790710E+00   0.7750000357627869E+00   0.7875000238418579E+00   0.8000000119209290E+00   0.8125000000000000E+00   0.8249999880790710E+00   0.8375000357627869E+00   0.8500000238418579E+00   0.8625000119209290E+00   0.8750000000000000E+00   0.8874999880790710E+00   0.9000000357627869E+00   0.9125000238418579E+00   0.9250000119209290E+00   0.9375000000000000E+00   0.9499999880790710E+00   0.9625000357627869E+00   0.9750000238418579E+00   0.9875000119209290E+00   0.1000000000000000E+01   0.0000000000000000E+00   0.1250000018626451E-01   0.2500000037252903E-01   0.3750000149011612E-01   0.5000000074505806E-01   0.6250000000000000E-01   0.7500000298023224E-01   0.8749999850988388E-01   0.1000000014901161E+00   0.1125000044703484E+00   0.1250000000000000E+00   0.1375000029802322E+00   0.1500000059604645E+00   0.1625000089406967E+00   0.1749999970197678E+00   0.1875000000000000E+00   0.2000000029802322E+00   0.2125000059604645E+00   0.2250000089406967E+00   0.2374999970197678E+00   0.2500000000000000E+00   0.2625000178813934E+00   0.2750000059604645E+00   0.2874999940395355E+00   0.3000000119209290E+00   0.3125000000000000E+00   0.3250000178813934E+00   0.3375000059604645E+00   0.3499999940395355E+00   0.3625000119209290E+00   0.3750000000000000E+00   0.3875000178813934E+00   0.4000000059604645E+00   0.4124999940395355E+00   0.4250000119209290E+00   0.4375000000000000E+00   0.4500000178813934E+00   0.4625000059604645E+00
   0.4749999940395355E+00   0.4875000119209290E+00   0.5000000000000000E+00   0.5124999880790710E+00   0.5250000357627869E+00   0.5375000238418579E+00   0.5500000119209290E+00   0.5625000000000000E+00   0.5749999880790710E+00   0.5875000357627869E+00   0.6000000238418579E+00   0.6125000119209290E+00   0.6250000000000000E+00   0.6374999880790710E+00   0.6500000357627869E+00   0.6625000238418579E+00   0.6750000119209290E+00   0.6875000000000000E+00   0.6999999880790710E+00   0.7125000357627869E+00   0.7250000238418579E+00   0.7375000119209290E+00   0.7500000000000000E+00   0.7624999880790710E+00   0.7750000357627869E+00   0.7875000238418579E+00   0.8000000119209290E+00   0.8125000000000000E+00   0.8249999880790710E+00   0.8375000357627869E+00   0.8500000238418579E+00   0.8625000119209290E+00   0.8750000000000000E+00   0.8874999880790710E+00   0.9000000357627869E+00   0.9125000238418579E+00   0.9250000119209290E+00   0.9375000000000000E+00   0.9499999880790710E+00   0.9625000357627869E+00   0.9750000238418579E+00   0.9875000119209290E+00   0.1000000000000000E+01   0.0000000000000000E+00   0.1250000018626451E-01   0.2500000037252903E-01   0.3750000149011612E-01   0.5000000074505806E-01   0.6250000000000000E-01   0.7500000298023224E-01   0.8749999850988388E-01   0.1000000014901161E+00   0.1125000044703484E+00   0.1250000000000000E+00   0.1375000029802322E+00   0.1500000059604645E+00   0.1625000089406967E+00   0.1749999970197678E+00   0.1875000000000000E+00   0.2000000029802322E+00   0.2125000059604645E+00   0.2250000089406967E+00   0.2374999970197678E+00   0.2500000000000000E+00   0.2625000178813934E+00   0.2750000059604645E+00   0.2874999940395355E+00   0.3000000119209290E+00   0.3125000000000000E+00   0.3250000178813934E+00   0.3375000059604645E+00   0.3499999940395355E+00   0.3625000119209290E+00   0.3750000000000000E+00   0.3875000178813934E+00   0.4000000059604645E+00   0.4124999940395355E+00   0.4250000119209290E+00   0.4375000000000000E+00   0.4500000178813934E+00   0.4625000059604645E+00   0.4749999940395355E+00   0.4875000119209290E+00   0.5000000000000000E+00   0.5124999880790710E+00   0.5250000357627869E+00   0.5375000238418579E+00   0.5500000119209290E+00   0.5625000000000000E+00   0.5749999880790710E+00   0.5875000357627869E+00   0.6000000238418579E+00   0.6125000119209290E+00   0.6250000000000000E+00   0.6374999880790710E+00   0.6500000357627869E+00   0.6625000238418579E+00   0.6750000119209290E+00   0.6875000000000000E+00   0.6999999880790710E+00
   0.7125000357627869E+00   0.7250000238418579E+00   0.7375000119209290E+00   0.7500000000000000E+00   0.7624999880790710E+00   0.7750000357627869E+00   0.7875000238418579E+00   0.8000000119209290E+00   0.8125000000000000E+00   0.8249999880790710E+00   0.8375000357627869E+00   0.8500000238418579E+00   0.8625000119209290E+00   0.8750000000000000E+00   0.8874999880790710E+00   0.9000000357627869E+00   0.9125000238418579E+00   0.9250000119209290E+00   0.9375000000000000E+00   0.9499999880790710E+00   0.9625000357627869E+00   0.9750000238418579E+00   0.9875000119209290E+00   0.1000000000000000E+01   0.0000000000000000E+00   0.1250000018626451E-01   0.2500000037252903E-01   0.3750000149011612E-01   0.5000000074505806E-01   0.6250000000000000E-01   0.7500000298023224E-01   0.8749999850988388E-01   0.1000000014901161E+00   0.1125000044703484E+00   0.1250000000000000E+00   0.1375000029802322E+00   0.1500000059604645E+00   0.1625000089406967E+00   0.1749999970197678E+00   0.1875000000000000E+00   0.2000000029802322E+00   0.2125000059604645E+00   0.2250000089406967E+00   0.2374999970197678E+00   0.2500000000000000E+00   0.2625000178813934E+00   0.2750000059604645E+00   0.2874999940395355E+00   0.3000000119209290E+00   0.3125000000000000E+00   0.3250000178813934E+00   0.3375000059604645E+00   0.3499999940395355E+00   0.3625000119209290E+00   0.3750000000000000E+00   0.3875000178813934E+00   0.4000000059604645E+00   0.4124999940395355E+00   0.4250000119209290E+00   0.4375000000000000E+00   0.4500000178813934E+00   0.4625000059604645E+00   0.4749999940395355E+00   0.4875000119209290E+00   0.5000000000000000E+00   0.5124999880790710E+00   0.5250000357627869E+00   0.5375000238418579E+00   0.5500000119209290E+00   0.5625000000000000E+00   0.5749999880790710E+00   0.5875000357627869E+00   0.6000000238418579E+00   0.6125000119209290E+00   0.6250000000000000E+00   0.6374999880790710E+00   0.6500000357627869E+00   0.6625000238418579E+00   0.6750000119209290E+00   0.6875000000000000E+00   0.6999999880790710E+00   0.7125000357627869E+00   0.7250000238418579E+00   0.7375000119209290E+00   0.7500000000000000E+00   0.7624999880790710E+00   0.7750000357627869E+00   0.7875000238418579E+00   0.8000000119209290E+00   0.8125000000000000E+00   0.8249999880790710E+00   0.8375000357627869E+00   0.8500000238418579E+00   0.8625000119209290E+00   0.8750000000000000E+00   0.8874999880790710E+00   0.9000000357627869E+00   0.9125000238418579E+00   0.9250000119209290E+00   0.9375000000000000E+00
   0.9499999880790710E+00   0.9625000357627869E+00   0.9750000238418579E+00   0.9875000119209290E+00   0.1000000000000000E+01   0.0000000000000000E+00   0.1250000018626451E-01   0.2500000037252903E-01   0.3750000149011612E-01   0.5000000074505806E-01   0.6250000000000000E-01   0.7500000298023224E-01   0.8749999850988388E-01   0.1000000014901161E+00   0.1125000044703484E+00   0.1250000000000000E+00   0.1375000029802322E+00   0.1500000059604645E+00   0.1625000089406967E+00   0.1749999970197678E+00   0.1875000000000000E+00   0.2000000029802322E+00   0.2125000059604645E+00   0.2250000089406967E+00   0.2374999970197678E+00   0.2500000000000000E+00   0.2625000178813934E+00   0.2750000059604645E+00   0.2874999940395355E+00   0.3000000119209290E+00   0.3125000000000000E+00   0.3250000178813934E+00   0.3375000059604645E+00   0.3499999940395355E+00   0.3625000119209290E+00   0.3750000000000000E+00   0.3875000178813934E+00   0.4000000059604645E+00   0.4124999940395355E+00   0.4250000119209290E+00   0.4375000000000000E+00   0.4500000178813934E+00   0.4625000059604645E+00   0.4749999940395355E+00   0.4875000119209290E+00   0.5000000000000000E+00   0.5124999880790710E+00   0.5250000357627869E+00   0.5375000238418579E+00   0.5500000119209290E+00   0.5625000000000000E+00   0.5749999880790710E+00   0.5875000357627869E+00   0.6000000238418579E+00   0.6125000119209290E+00   0.6250000000000000E+00   0.6374999880790710E+00   0.6500000357627869E+00   0.6625000238418579E+00   0.6750000119209290E+00   0.6875000000000000E+00   0.6999999880790710E+00   0.7125000357627869E+00   0.7250000238418579E+00   0.7375000119209290E+00   0.7500000000000000E+00   0.7624999880790710E+00   0.7750000357627869E+00   0.7875000238418579E+00   0.8000000119209290E+00   0.8125000000000000E+00   0.8249999880790710E+00   0.8375000357627869E+00   0.8500000238418579E+00   0.8625000119209290E+00   0.8750000000000000E+00   0.8874999880790710E+00   0.9000000357627869E+00   0.9125000238418579E+00   0.9250000119209290E+00   0.9375000000000000E+00   0.9499999880790710E+00   0.9625000357627869E+00   0.9750000238418579E+00   0.9875000119209290E+00   0.1000000000000000E+01   0.0000000000000000E+00   0.1250000018626451E-01   0.2500000037252903E-01   0.3750000149011612E-01   0.5000000074505806E-01   0.6250000000000000E-01   0.7500000298023224E-01   0.8749999850988388E-01   0.1000000014901161E+00   0.1125000044703484E+00   0.1250000000000000E+00   0.1375000029802322E+00   0.1500000059604645E+00   0.1625000089406967E+00
   0.1749999970197678E+00   0.1875000000000000E+00   0.2000000029802322E+00   0.2125000059604645E+00   0.2250000089406967E+00   0.2374999970197678E+00   0.2500000000000000E+00   0.2625000178813934E+00   0.2750000059604645E+00   0.2874999940395355E+00   0.3000000119209290E+00   0.3125000000000000E+00   0.3250000178813934E+00   0.3375000059604645E+00   0.3499999940395355E+00   0.3625000119209290E+00   0.3750000000000000E+00   0.3875000178813934E+00   0.4000000059604645E+00   0.4124999940395355E+00   0.4250000119209290E+00   0.4375000000000000E+00   0.4500000178813934E+00   0.4625000059604645E+00   0.4749999940395355E+00   0.4875000119209290E+00   0.5000000000000000E+00   0.5124999880790710E+00   0.5250000357627869E+00   0.5375000238418579E+00   0.5500000119209290E+00   0.5625000000000000E+00   0.5749999880790710E+00   0.5875000357627869E+00   0.6000000238418579E+00   0.6125000119209290E+00   0.6250000000000000E+00   0.6374999880790710E+00   0.6500000357627869E+00   0.6625000238418579E+00   0.6750000119209290E+00   0.6875000000000000E+00   0.6999999880790710E+00   0.7125000357627869E+00   0.7250000238418579E+00   0.7375000119209290E+00   0.7500000000000000E+00   0.7624999880790710E+00   0.7750000357627869E+00   0.7875000238418579E+00   0.8000000119209290E+00   0.8125000000000000E+00   0.8249999880790710E+00   0.8375000357627869E+00   0.8500000238418579E+00   0.8625000119209290E+00   0.8750000000000000E+00   0.8874999880790710E+00   0.9000000357627869E+00   0.9125000238418579E+00   0.9250000119209290E+00   0.9375000000000000E+00   0.9499999880790710E+00   0.9625000357627869E+00   0.9750000238418579E+00   0.9875000119209290E+00   0.1000000000000000E+01   0.0000000000000000E+00   0.1250000018626451E-01   0.2500000037252903E-01   0.3750000149011612E-01   0.5000000074505806E-01   0.6250000000000000E-01   0.7500000298023224E-01   0.8749999850988388E-01   0.1000000014901161E+00   0.1125000044703484E+00   0.1250000000000000E+00   0.1375000029802322E+00   0.1500000059604645E+00   0.1625000089406967E+00   0.1749999970197678E+00   0.1875000000000000E+00   0.2000000029802322E+00   0.2125000059604645E+00   0.2250000089406967E+00   0.2374999970197678E+00   0.2500000000000000E+00   0.2625000178813934E+00   0.2750000059604645E+00   0.2874999940395355E+00   0.3000000119209290E+00   0.3125000000000000E+00   0.3250000178813934E+00   0.3375000059604645E+00   0.3499999940395355E+00   0.3625000119209290E+00   0.3750000000000000E+00   0.3875000178813934E+00   0.4000000059604645E+00
   0.4124999940395355E+00   0.4250000119209290E+00   0.4375000000000000E+00   0.4500000178813934E+00   0.4625000059604645E+00   0.4749999940395355E+00   0.4875000119209290E+00   0.5000000000000000E+00   0.5124999880790710E+00   0.5250000357627869E+00   0.5375000238418579E+00   0.5500000119209290E+00   0.5625000000000000E+00   0.5749999880790710E+00   0.5875000357627869E+00   0.6000000238418579E+00   0.6125000119209290E+00   0.6250000000000000E+00   0.6374999880790710E+00   0.6500000357627869E+00   0.6625000238418579E+00   0.6750000119209290E+00   0.6875000000000000E+00   0.6999999880790710E+00   0.7125000357627869E+00   0.7250000238418579E+00   0.7375000119209290E+00   0.7500000000000000E+00   0.7624999880790710E+00   0.7750000357627869E+00   0.7875000238418579E+00   0.8000000119209290E+00   0.8125000000000000E+00   0.8249999880790710E+00   0.8375000357627869E+00   0.8500000238418579E+00   0.8625000119209290E+00   0.8750000000000000E+00   0.8874999880790710E+00   0.9000000357627869E+00   0.9125000238418579E+00   0.9250000119209290E+00   0.9375000000000000E+00   0.9499999880790710E+00   0.9625000357627869E+00   0.9750000238418579E+00   0.9875000119209290E+00   0.1000000000000000E+01   0.0000000000000000E+00   0.1250000018626451E-01   0.2500000037252903E-01   0.3750000149011612E-01   0.5000000074505806E-01   0.6250000000000000E-01   0.7500000298023224E-01   0.8749999850988388E-01   0.1000000014901161E+00   0.1125000044703484E+00   0.1250000000000000E+00   0.1375000029802322E+00   0.1500000059604645E+00   0.1625000089406967E+00   0.1749999970197678E+00   0.1875000000000000E+00   0.2000000029802322E+00   0.2125000059604645E+00   0.2250000089406967E+00   0.2374999970197678E+00   0.2500000000000000E+00   0.2625000178813934E+00   0.2750000059604645E+00   0.2874999940395355E+00   0.3000000119209290E+00   0.3125000000000000E+00   0.3250000178813934E+00   0.3375000059604645E+00   0.3499999940395355E+00   0.3625000119209290E+00   0.3750000000000000E+00   0.3875000178813934E+00   0.4000000059604645E+00   0.4124999940395355E+00   0.4250000119209290E+00   0.4375000000000000E+00   0.4500000178813934E+00   0.4625000059604645E+00   0.4749999940395355E+00   0.4875000119209290E+00   0.5000000000000000E+00   0.5124999880790710E+00   0.5250000357627869E+00   0.5375000238418579E+00   0.5500000119209290E+00   0.5625000000000000E+00   0.5749999880790710E+00   0.5875000357627869E+00   0.6000000238418579E+00   0.6125000119209290E+00   0.6250000000000000E+00   0.6374999880790710E+00
   0.6500000357627869E+00   0.6625000238418579E+00   0.6750000119209290E+00   0.6875000000000000E+00   0.6999999880790710E+00   0.7125000357627869E+00   0.7250000238418579E+00   0.7375000119209290E+00   0.7500000000000000E+00   0.7624999880790710E+00   0.7750000357627869E+00   0.7875000238418579E+00   0.8000000119209290E+00   0.8125000000000000E+00   0.8249999880790710E+00   0.8375000357627869E+00   0.8500000238418579E+00   0.8625000119209290E+00   0.8750000000000000E+00   0.8874999880790710E+00   0.9000000357627869E+00   0.9125000238418579E+00   0.9250000119209290E+00   0.9375000000000000E+00   0.9499999880790710E+00   0.9625000357627869E+00   0.9750000238418579E+00   0.9875000119209290E+00   0.1000000000000000E+01   0.0000000000000000E+00   0.1250000018626451E-01   0.2500000037252903E-01   0.3750000149011612E-01   0.5000000074505806E-01   0.6250000000000000E-01   0.7500000298023224E-01   0.8749999850988388E-01   0.1000000014901161E+00   0.1125000044703484E+00   0.1250000000000000E+00   0.1375000029802322E+00   0.1500000059604645E+00   0.1625000089406967E+00   0.1749999970197678E+00   0.1875000000000000E+00   0.2000000029802322E+00   0.2125000059604645E+00   0.2250000089406967E+00   0.2374999970197678E+00   0.2500000000000000E+00   0.2625000178813934E+00   0.2750000059604645E+00   0.2874999940395355E+00   0.3000000119209290E+00   0.3125000000000000E+00   0.3250000178813934E+00   0.3375000059604645E+00   0.3499999940395355E+00   0.3625000119209290E+00   0.3750000000000000E+00   0.3875000178813934E+00   0.4000000059604645E+00   0.4124999940395355E+00   0.4250000119209290E+00   0.4375000000000000E+00   0.4500000178813934E+00   0.4625000059604645E+00   0.4749999940395355E+00   0.4875000119209290E+00   0.5000000000000000E+00   0.5124999880790710E+00   0.5250000357627869E+00   0.5375000238418579E+00   0.5500000119209290E+00   0.5625000000000000E+00   0.5749999880790710E+00   0.5875000357627869E+00   0.6000000238418579E+00   0.6125000119209290E+00   0.6250000000000000E+00   0.6374999880790710E+00   0.6500000357627869E+00   0.6625000238418579E+00   0.6750000119209290E+00   0.6875000000000000E+00   0.6999999880790710E+00   0.7125000357627869E+00   0.7250000238418579E+00   0.7375000119209290E+00   0.7500000000000000E+00   0.7624999880790710E+00   0.7750000357627869E+00   0.7875000238418579E+00   0.8000000119209290E+00   0.8125000000000000E+00   0.8249999880790710E+00   0.8375000357627869E+00   0.8500000238418579E+00   0.8625000119209290E+00   0.8750000000000000E+00
   0.8874999880790710E+00   0.9000000357627869E+00   0.9125000238418579E+00   0.9250000119209290E+00   0.9375000000000000E+00   0.9499999880790710E+00   0.9625000357627869E+00   0.9750000238418579E+00   0.9875000119209290E+00   0.1000000000000000E+01   0.0000000000000000E+00   0.1250000018626451E-01   0.2500000037252903E-01   0.3750000149011612E-01   0.5000000074505806E-01   0.6250000000000000E-01   0.7500000298023224E-01   0.8749999850988388E-01   0.1000000014901161E+00   0.1125000044703484E+00   0.1250000000000000E+00   0.1375000029802322E+00   0.1500000059604645E+00   0.1625000089406967E+00   0.1749999970197678E+00   0.1875000000000000E+00   0.2000000029802322E+00   0.2125000059604645E+00   0.2250000089406967E+00   0.2374999970197678E+00   0.2500000000000000E+00   0.2625000178813934E+00   0.2750000059604645E+00   0.2874999940395355E+00   0.3000000119209290E+00   0.3125000000000000E+00   0.3250000178813934E+00   0.3375000059604645E+00   0.3499999940395355E+00   0.3625000119209290E+00   0.3750000000000000E+00   0.3875000178813934E+00   0.4000000059604645E+00   0.4124999940395355E+00   0.4250000119209290E+00   0.4375000000000000E+00   0.4500000178813934E+00   0.4625000059604645E+00   0.4749999940395355E+00   0.4875000119209290E+00   0.5000000000000000E+00   0.5124999880790710E+00   0.5250000357627869E+00   0.5375000238418579E+00   0.5500000119209290E+00   0.5625000000000000E+00   0.5749999880790710E+00   0.5875000357627869E+00   0.6000000238418579E+00   0.6125000119209290E+00   0.6250000000000000E+00   0.6374999880790710E+00   0.6500000357627869E+00   0.6625000238418579E+00   0.6750000119209290E+00   0.6875000000000000E+00   0.6999999880790710E+00   0.7125000357627869E+00   0.7250000238418579E+00   0.7375000119209290E+00   0.7500000000000000E+00   0.7624999880790710E+00   0.7750000357627869E+00   0.7875000238418579E+00   0.8000000119209290E+00   0.8125000000000000E+00   0.8249999880790710E+00   0.8375000357627869E+00   0.8500000238418579E+00   0.8625000119209290E+00   0.8750000000000000E+00   0.8874999880790710E+00   0.9000000357627869E+00   0.9125000238418579E+00   0.9250000119209290E+00   0.9375000000000000E+00   0.9499999880790710E+00   0.9625000357627869E+00   0.9750000238418579E+00   0.9875000119209290E+00   0.1000000000000000E+01   0.0000000000000000E+00   0.1250000018626451E-01   0.2500000037252903E-01   0.3750000149011612E-01   0.5000000074505806E-01   0.6250000000000000E-01   0.7500000298023224E-01   0.8749999850988388E-01   0.1000000014901161E+00
   0.1125000044703484E+00   0.1250000000000000E+00   0.1375000029802322E+00   0.1500000059604645E+00   0.1625000089406967E+00   0.1749999970197678E+00   0.1875000000000000E+00   0.2000000029802322E+00   0.2125000059604645E+00   0.2250000089406967E+00   0.2374999970197678E+00   0.2500000000000000E+00   0.2625000178813934E+00   0.2750000059604645E+00   0.2874999940395355E+00   0.3000000119209290E+00   0.3125000000000000E+00   0.3250000178813934E+00   0.3375000059604645E+00   0.3499999940395355E+00   0.3625000119209290E+00   0.3750000000000000E+00   0.3875000178813934E+00   0.4000000059604645E+00   0.4124999940395355E+00   0.4250000119209290E+00   0.4375000000000000E+00   0.4500000178813934E+00   0.4625000059604645E+00   0.4749999940395355E+00   0.4875000119209290E+00   0.5000000000000000E+00   0.5124999880790710E+00   0.5250000357627869E+00   0.5375000238418579E+00   0.5500000119209290E+00   0.5625000000000000E+00   0.5749999880790710E+00   0.5875000357627869E+00   0.6000000238418579E+00   0.6125000119209290E+00   0.6250000000000000E+00   0.6374999880790710E+00   0.6500000357627869E+00   0.6625000238418579E+00   0.6750000119209290E+00   0.6875000000000000E+00   0.6999999880790710E+00   0.7125000357627869E+00   0.7250000238418579E+00   0.7375000119209290E+00   0.7500000000000000E+00   0.7624999880790710E+00   0.7750000357627869E+00   0.7875000238418579E+00   0.8000000119209290E+00   0.8125000000000000E+00   0.8249999880790710E+00   0.8375000357627869E+00   0.8500000238418579E+00   0.8625000119209290E+00   0.8750000000000000E+00   0.8874999880790710E+00   0.9000000357627869E+00   0.9125000238418579E+00   0.9250000119209290E+00   0.9375000000000000E+00   0.9499999880790710E+00   0.9625000357627869E+00   0.9750000238418579E+00   0.9875000119209290E+00   0.1000000000000000E+01   0.0000000000000000E+00   0.1250000018626451E-01   0.2500000037252903E-01   0.3750000149011612E-01   0.5000000074505806E-01   0.6250000000000000E-01   0.7500000298023224E-01   0.8749999850988388E-01   0.1000000014901161E+00   0.1125000044703484E+00   0.1250000000000000E+00   0.1375000029802322E+00   0.1500000059604645E+00   0.1625000089406967E+00   0.1749999970197678E+00   0.1875000000000000E+00   0.2000000029802322E+00   0.2125000059604645E+00   0.2250000089406967E+00   0.2374999970197678E+00   0.2500000000000000E+00   0.2625000178813934E+00   0.2750000059604645E+00   0.2874999940395355E+00   0.3000000119209290E+00   0.3125000000000000E+00   0.3250000178813934E+00   0.3375000059604645E+00
   0.3499999940395355E+00   0.3625000119209290E+00   0.3750000000000000E+00   0.3875000178813934E+00   0.4000000059604645E+00   0.4124999940395355E+00   0.4250000119209290E+00   0.4375000000000000E+00   0.4500000178813934E+00   0.4625000059604645E+00   0.4749999940395355E+00   0.4875000119209290E+00   0.5000000000000000E+00   0.5124999880790710E+00   0.5250000357627869E+00   0.5375000238418579E+00   0.5500000119209290E+00   0.5625000000000000E+00   0.5749999880790710E+00   0.5875000357627869E+00   0.6000000238418579E+00   0.6125000119209290E+00   0.6250000000000000E+00   0.6374999880790710E+00   0.6500000357627869E+00   0.6625000238418579E+00   0.6750000119209290E+00   0.6875000000000000E+00   0.6999999880790710E+00   0.7125000357627869E+00   0.7250000238418579E+00   0.7375000119209290E+00   0.7500000000000000E+00   0.7624999880790710E+00   0.7750000357627869E+00   0.7875000238418579E+00   0.8000000119209290E+00   0.8125000000000000E+00   0.8249999880790710E+00   0.8375000357627869E+00   0.8500000238418579E+00   0.8625000119209290E+00   0.8750000000000000E+00   0.8874999880790710E+00   0.9000000357627869E+00   0.9125000238418579E+00   0.9250000119209290E+00   0.9375000000000000E+00   0.9499999880790710E+00   0.9625000357627869E+00   0.9750000238418579E+00   0.9875000119209290E+00   0.1000000000000000E+01   0.0000000000000000E+00   0.1250000018626451E-01   0.2500000037252903E-01   0.3750000149011612E-01   0.5000000074505806E-01   0.6250000000000000E-01   0.7500000298023224E-01   0.8749999850988388E-01   0.1000000014901161E+00   0.1125000044703484E+00   0.1250000000000000E+00   0.1375000029802322E+00   0.1500000059604645E+00   0.1625000089406967E+00   0.1749999970197678E+00   0.1875000000000000E+00   0.2000000029802322E+00   0.2125000059604645E+00   0.2250000089406967E+00   0.2374999970197678E+00   0.2500000000000000E+00   0.2625000178813934E+00   0.2750000059604645E+00   0.2874999940395355E+00   0.3000000119209290E+00   0.3125000000000000E+00   0.3250000178813934E+00   0.3375000059604645E+00   0.3499999940395355E+00   0.3625000119209290E+00   0.3750000000000000E+00   0.3875000178813934E+00   0.4000000059604645E+00   0.4124999940395355E+00   0.4250000119209290E+00   0.4375000000000000E+00   0.4500000178813934E+00   0.4625000059604645E+00   0.4749999940395355E+00   0.4875000119209290E+00   0.5000000000000000E+00   0.5124999880790710E+00   0.5250000357627869E+00   0.5375000238418579E+00   0.5500000119209290E+00   0.5625000000000000E+00   0.5749999880790710E+00