 VARIABLES = "X", "Y", "U", "V", "P", "RHO", "C_f" 
 ZONE I=         151 , J=          51 , DATAPACKING=BLOCK
   0.0000000000000000E+00   0.6666666828095913E-02   0.1333333365619183E-01   0.1999999955296516E-01   0.2666666731238365E-01   0.3333333507180214E-01   0.3999999910593033E-01   0.4666666686534882E-01   0.5333333462476730E-01   0.6000000238418579E-01   0.6666667014360428E-01   0.7333333790302277E-01   0.7999999821186066E-01   0.8666666597127914E-01   0.9333333373069763E-01   0.1000000014901161E+00   0.1066666692495346E+00   0.1133333370089531E+00   0.1200000047683716E+00   0.1266666650772095E+00   0.1333333402872086E+00   0.1400000005960464E+00   0.1466666758060455E+00   0.1533333361148834E+00   0.1599999964237213E+00   0.1666666716337204E+00   0.1733333319425583E+00   0.1800000071525574E+00   0.1866666674613953E+00   0.1933333426713943E+00   0.2000000029802322E+00   0.2066666781902313E+00   0.2133333384990692E+00   0.2199999988079071E+00   0.2266666740179062E+00   0.2333333343267441E+00   0.2400000095367432E+00   0.2466666698455811E+00   0.2533333301544189E+00   0.2600000202655792E+00   0.2666666805744171E+00   0.2733333408832550E+00   0.2800000011920929E+00   0.2866666615009308E+00   0.2933333516120911E+00   0.3000000119209290E+00   0.3066666722297668E+00   0.3133333325386047E+00   0.3199999928474426E+00   0.3266666829586029E+00   0.3333333432674408E+00   0.3400000035762787E+00   0.3466666638851166E+00   0.3533333539962769E+00   0.3600000143051147E+00   0.3666666746139526E+00   0.3733333349227905E+00   0.3799999952316284E+00   0.3866666853427887E+00   0.3933333456516266E+00   0.4000000059604645E+00   0.4066666662693024E+00   0.4133333563804626E+00   0.4200000166893005E+00   0.4266666769981384E+00   0.4333333373069763E+00   0.4399999976158142E+00   0.4466666877269745E+00   0.4533333480358124E+00   0.4600000083446503E+00   0.4666666686534882E+00   0.4733333587646484E+00   0.4800000190734863E+00   0.4866666793823242E+00   0.4933333396911621E+00   0.5000000000000000E+00   0.5066666603088379E+00   0.5133333206176758E+00   0.5200000405311584E+00   0.5266667008399963E+00   0.5333333611488342E+00   0.5400000214576721E+00   0.5466666817665100E+00   0.5533333420753479E+00   0.5600000023841858E+00   0.5666666626930237E+00   0.5733333230018616E+00   0.5800000429153442E+00   0.5866667032241821E+00   0.5933333635330200E+00   0.6000000238418579E+00   0.6066666841506958E+00   0.6133333444595337E+00   0.6200000047683716E+00   0.6266666650772095E+00   0.6333333253860474E+00   0.6399999856948853E+00   0.6466667056083679E+00   0.6533333659172058E+00   0.6600000262260437E+00
   0.6666666865348816E+00   0.6733333468437195E+00   0.6800000071525574E+00   0.6866666674613953E+00   0.6933333277702332E+00   0.6999999880790710E+00   0.7066667079925537E+00   0.7133333683013916E+00   0.7200000286102295E+00   0.7266666889190674E+00   0.7333333492279053E+00   0.7400000095367432E+00   0.7466666698455811E+00   0.7533333301544189E+00   0.7599999904632568E+00   0.7666667103767395E+00   0.7733333706855774E+00   0.7800000309944153E+00   0.7866666913032532E+00   0.7933333516120911E+00   0.8000000119209290E+00   0.8066666722297668E+00   0.8133333325386047E+00   0.8199999928474426E+00   0.8266667127609253E+00   0.8333333730697632E+00   0.8400000333786011E+00   0.8466666936874390E+00   0.8533333539962769E+00   0.8600000143051147E+00   0.8666666746139526E+00   0.8733333349227905E+00   0.8799999952316284E+00   0.8866667151451111E+00   0.8933333754539490E+00   0.9000000357627869E+00   0.9066666960716248E+00   0.9133333563804626E+00   0.9200000166893005E+00   0.9266666769981384E+00   0.9333333373069763E+00   0.9399999976158142E+00   0.9466667175292969E+00   0.9533333778381348E+00   0.9600000381469727E+00   0.9666666984558105E+00   0.9733333587646484E+00   0.9800000190734863E+00   0.9866666793823242E+00   0.9933333396911621E+00   0.1000000000000000E+01   0.0000000000000000E+00   0.6666666828095913E-02   0.1333333365619183E-01   0.1999999955296516E-01   0.2666666731238365E-01   0.3333333507180214E-01   0.3999999910593033E-01   0.4666666686534882E-01   0.5333333462476730E-01   0.6000000238418579E-01   0.6666667014360428E-01   0.7333333790302277E-01   0.7999999821186066E-01   0.8666666597127914E-01   0.9333333373069763E-01   0.1000000014901161E+00   0.1066666692495346E+00   0.1133333370089531E+00   0.1200000047683716E+00   0.1266666650772095E+00   0.1333333402872086E+00   0.1400000005960464E+00   0.1466666758060455E+00   0.1533333361148834E+00   0.1599999964237213E+00   0.1666666716337204E+00   0.1733333319425583E+00   0.1800000071525574E+00   0.1866666674613953E+00   0.1933333426713943E+00   0.2000000029802322E+00   0.2066666781902313E+00   0.2133333384990692E+00   0.2199999988079071E+00   0.2266666740179062E+00   0.2333333343267441E+00   0.2400000095367432E+00   0.2466666698455811E+00   0.2533333301544189E+00   0.2600000202655792E+00   0.2666666805744171E+00   0.2733333408832550E+00   0.2800000011920929E+00   0.2866666615009308E+00   0.2933333516120911E+00   0.3000000119209290E+00   0.3066666722297668E+00   0.3133333325386047E+00   0.3199999928474426E+00
   0.3266666829586029E+00   0.3333333432674408E+00   0.3400000035762787E+00   0.3466666638851166E+00   0.3533333539962769E+00   0.3600000143051147E+00   0.3666666746139526E+00   0.3733333349227905E+00   0.3799999952316284E+00   0.3866666853427887E+00   0.3933333456516266E+00   0.4000000059604645E+00   0.4066666662693024E+00   0.4133333563804626E+00   0.4200000166893005E+00   0.4266666769981384E+00   0.4333333373069763E+00   0.4399999976158142E+00   0.4466666877269745E+00   0.4533333480358124E+00   0.4600000083446503E+00   0.4666666686534882E+00   0.4733333587646484E+00   0.4800000190734863E+00   0.4866666793823242E+00   0.4933333396911621E+00   0.5000000000000000E+00   0.5066666603088379E+00   0.5133333206176758E+00   0.5200000405311584E+00   0.5266667008399963E+00   0.5333333611488342E+00   0.5400000214576721E+00   0.5466666817665100E+00   0.5533333420753479E+00   0.5600000023841858E+00   0.5666666626930237E+00   0.5733333230018616E+00   0.5800000429153442E+00   0.5866667032241821E+00   0.5933333635330200E+00   0.6000000238418579E+00   0.6066666841506958E+00   0.6133333444595337E+00   0.6200000047683716E+00   0.6266666650772095E+00   0.6333333253860474E+00   0.6399999856948853E+00   0.6466667056083679E+00   0.6533333659172058E+00   0.6600000262260437E+00   0.6666666865348816E+00   0.6733333468437195E+00   0.6800000071525574E+00   0.6866666674613953E+00   0.6933333277702332E+00   0.6999999880790710E+00   0.7066667079925537E+00   0.7133333683013916E+00   0.7200000286102295E+00   0.7266666889190674E+00   0.7333333492279053E+00   0.7400000095367432E+00   0.7466666698455811E+00   0.7533333301544189E+00   0.7599999904632568E+00   0.7666667103767395E+00   0.7733333706855774E+00   0.7800000309944153E+00   0.7866666913032532E+00   0.7933333516120911E+00   0.8000000119209290E+00   0.8066666722297668E+00   0.8133333325386047E+00   0.8199999928474426E+00   0.8266667127609253E+00   0.8333333730697632E+00   0.8400000333786011E+00   0.8466666936874390E+00   0.8533333539962769E+00   0.8600000143051147E+00   0.8666666746139526E+00   0.8733333349227905E+00   0.8799999952316284E+00   0.8866667151451111E+00   0.8933333754539490E+00   0.9000000357627869E+00   0.9066666960716248E+00   0.9133333563804626E+00   0.9200000166893005E+00   0.9266666769981384E+00   0.9333333373069763E+00   0.9399999976158142E+00   0.9466667175292969E+00   0.9533333778381348E+00   0.9600000381469727E+00   0.9666666984558105E+00   0.9733333587646484E+00   0.9800000190734863E+00   0.9866666793823242E+00
   0.9933333396911621E+00   0.1000000000000000E+01   0.0000000000000000E+00   0.6666666828095913E-02   0.1333333365619183E-01   0.1999999955296516E-01   0.2666666731238365E-01   0.3333333507180214E-01   0.3999999910593033E-01   0.4666666686534882E-01   0.5333333462476730E-01   0.6000000238418579E-01   0.6666667014360428E-01   0.7333333790302277E-01   0.7999999821186066E-01   0.8666666597127914E-01   0.9333333373069763E-01   0.1000000014901161E+00   0.1066666692495346E+00   0.1133333370089531E+00   0.1200000047683716E+00   0.1266666650772095E+00   0.1333333402872086E+00   0.1400000005960464E+00   0.1466666758060455E+00   0.1533333361148834E+00   0.1599999964237213E+00   0.1666666716337204E+00   0.1733333319425583E+00   0.1800000071525574E+00   0.1866666674613953E+00   0.1933333426713943E+00   0.2000000029802322E+00   0.2066666781902313E+00   0.2133333384990692E+00   0.2199999988079071E+00   0.2266666740179062E+00   0.2333333343267441E+00   0.2400000095367432E+00   0.2466666698455811E+00   0.2533333301544189E+00   0.2600000202655792E+00   0.2666666805744171E+00   0.2733333408832550E+00   0.2800000011920929E+00   0.2866666615009308E+00   0.2933333516120911E+00   0.3000000119209290E+00   0.3066666722297668E+00   0.3133333325386047E+00   0.3199999928474426E+00   0.3266666829586029E+00   0.3333333432674408E+00   0.3400000035762787E+00   0.3466666638851166E+00   0.3533333539962769E+00   0.3600000143051147E+00   0.3666666746139526E+00   0.3733333349227905E+00   0.3799999952316284E+00   0.3866666853427887E+00   0.3933333456516266E+00   0.4000000059604645E+00   0.4066666662693024E+00   0.4133333563804626E+00   0.4200000166893005E+00   0.4266666769981384E+00   0.4333333373069763E+00   0.4399999976158142E+00   0.4466666877269745E+00   0.4533333480358124E+00   0.4600000083446503E+00   0.4666666686534882E+00   0.4733333587646484E+00   0.4800000190734863E+00   0.4866666793823242E+00   0.4933333396911621E+00   0.5000000000000000E+00   0.5066666603088379E+00   0.5133333206176758E+00   0.5200000405311584E+00   0.5266667008399963E+00   0.5333333611488342E+00   0.5400000214576721E+00   0.5466666817665100E+00   0.5533333420753479E+00   0.5600000023841858E+00   0.5666666626930237E+00   0.5733333230018616E+00   0.5800000429153442E+00   0.5866667032241821E+00   0.5933333635330200E+00   0.6000000238418579E+00   0.6066666841506958E+00   0.6133333444595337E+00   0.6200000047683716E+00   0.6266666650772095E+00   0.6333333253860474E+00   0.6399999856948853E+00   0.6466667056083679E+00
   0.6533333659172058E+00   0.6600000262260437E+00   0.6666666865348816E+00   0.6733333468437195E+00   0.6800000071525574E+00   0.6866666674613953E+00   0.6933333277702332E+00   0.6999999880790710E+00   0.7066667079925537E+00   0.7133333683013916E+00   0.7200000286102295E+00   0.7266666889190674E+00   0.7333333492279053E+00   0.7400000095367432E+00   0.7466666698455811E+00   0.7533333301544189E+00   0.7599999904632568E+00   0.7666667103767395E+00   0.7733333706855774E+00   0.7800000309944153E+00   0.7866666913032532E+00   0.7933333516120911E+00   0.8000000119209290E+00   0.8066666722297668E+00   0.8133333325386047E+00   0.8199999928474426E+00   0.8266667127609253E+00   0.8333333730697632E+00   0.8400000333786011E+00   0.8466666936874390E+00   0.8533333539962769E+00   0.8600000143051147E+00   0.8666666746139526E+00   0.8733333349227905E+00   0.8799999952316284E+00   0.8866667151451111E+00   0.8933333754539490E+00   0.9000000357627869E+00   0.9066666960716248E+00   0.9133333563804626E+00   0.9200000166893005E+00   0.9266666769981384E+00   0.9333333373069763E+00   0.9399999976158142E+00   0.9466667175292969E+00   0.9533333778381348E+00   0.9600000381469727E+00   0.9666666984558105E+00   0.9733333587646484E+00   0.9800000190734863E+00   0.9866666793823242E+00   0.9933333396911621E+00   0.1000000000000000E+01   0.0000000000000000E+00   0.6666666828095913E-02   0.1333333365619183E-01   0.1999999955296516E-01   0.2666666731238365E-01   0.3333333507180214E-01   0.3999999910593033E-01   0.4666666686534882E-01   0.5333333462476730E-01   0.6000000238418579E-01   0.6666667014360428E-01   0.7333333790302277E-01   0.7999999821186066E-01   0.8666666597127914E-01   0.9333333373069763E-01   0.1000000014901161E+00   0.1066666692495346E+00   0.1133333370089531E+00   0.1200000047683716E+00   0.1266666650772095E+00   0.1333333402872086E+00   0.1400000005960464E+00   0.1466666758060455E+00   0.1533333361148834E+00   0.1599999964237213E+00   0.1666666716337204E+00   0.1733333319425583E+00   0.1800000071525574E+00   0.1866666674613953E+00   0.1933333426713943E+00   0.2000000029802322E+00   0.2066666781902313E+00   0.2133333384990692E+00   0.2199999988079071E+00   0.2266666740179062E+00   0.2333333343267441E+00   0.2400000095367432E+00   0.2466666698455811E+00   0.2533333301544189E+00   0.2600000202655792E+00   0.2666666805744171E+00   0.2733333408832550E+00   0.2800000011920929E+00   0.2866666615009308E+00   0.2933333516120911E+00   0.3000000119209290E+00   0.3066666722297668E+00
   0.3133333325386047E+00   0.3199999928474426E+00   0.3266666829586029E+00   0.3333333432674408E+00   0.3400000035762787E+00   0.3466666638851166E+00   0.3533333539962769E+00   0.3600000143051147E+00   0.3666666746139526E+00   0.3733333349227905E+00   0.3799999952316284E+00   0.3866666853427887E+00   0.3933333456516266E+00   0.4000000059604645E+00   0.4066666662693024E+00   0.4133333563804626E+00   0.4200000166893005E+00   0.4266666769981384E+00   0.4333333373069763E+00   0.4399999976158142E+00   0.4466666877269745E+00   0.4533333480358124E+00   0.4600000083446503E+00   0.4666666686534882E+00   0.4733333587646484E+00   0.4800000190734863E+00   0.4866666793823242E+00   0.4933333396911621E+00   0.5000000000000000E+00   0.5066666603088379E+00   0.5133333206176758E+00   0.5200000405311584E+00   0.5266667008399963E+00   0.5333333611488342E+00   0.5400000214576721E+00   0.5466666817665100E+00   0.5533333420753479E+00   0.5600000023841858E+00   0.5666666626930237E+00   0.5733333230018616E+00   0.5800000429153442E+00   0.5866667032241821E+00   0.5933333635330200E+00   0.6000000238418579E+00   0.6066666841506958E+00   0.6133333444595337E+00   0.6200000047683716E+00   0.6266666650772095E+00   0.6333333253860474E+00   0.6399999856948853E+00   0.6466667056083679E+00   0.6533333659172058E+00   0.6600000262260437E+00   0.6666666865348816E+00   0.6733333468437195E+00   0.6800000071525574E+00   0.6866666674613953E+00   0.6933333277702332E+00   0.6999999880790710E+00   0.7066667079925537E+00   0.7133333683013916E+00   0.7200000286102295E+00   0.7266666889190674E+00   0.7333333492279053E+00   0.7400000095367432E+00   0.7466666698455811E+00   0.7533333301544189E+00   0.7599999904632568E+00   0.7666667103767395E+00   0.7733333706855774E+00   0.7800000309944153E+00   0.7866666913032532E+00   0.7933333516120911E+00   0.8000000119209290E+00   0.8066666722297668E+00   0.8133333325386047E+00   0.8199999928474426E+00   0.8266667127609253E+00   0.8333333730697632E+00   0.8400000333786011E+00   0.8466666936874390E+00   0.8533333539962769E+00   0.8600000143051147E+00   0.8666666746139526E+00   0.8733333349227905E+00   0.8799999952316284E+00   0.8866667151451111E+00   0.8933333754539490E+00   0.9000000357627869E+00   0.9066666960716248E+00   0.9133333563804626E+00   0.9200000166893005E+00   0.9266666769981384E+00   0.9333333373069763E+00   0.9399999976158142E+00   0.9466667175292969E+00   0.9533333778381348E+00   0.9600000381469727E+00   0.9666666984558105E+00   0.9733333587646484E+00
   0.9800000190734863E+00   0.9866666793823242E+00   0.9933333396911621E+00   0.1000000000000000E+01   0.0000000000000000E+00   0.6666666828095913E-02   0.1333333365619183E-01   0.1999999955296516E-01   0.2666666731238365E-01   0.3333333507180214E-01   0.3999999910593033E-01   0.4666666686534882E-01   0.5333333462476730E-01   0.6000000238418579E-01   0.6666667014360428E-01   0.7333333790302277E-01   0.7999999821186066E-01   0.8666666597127914E-01   0.9333333373069763E-01   0.1000000014901161E+00   0.1066666692495346E+00   0.1133333370089531E+00   0.1200000047683716E+00   0.1266666650772095E+00   0.1333333402872086E+00   0.1400000005960464E+00   0.1466666758060455E+00   0.1533333361148834E+00   0.1599999964237213E+00   0.1666666716337204E+00   0.1733333319425583E+00   0.1800000071525574E+00   0.1866666674613953E+00   0.1933333426713943E+00   0.2000000029802322E+00   0.2066666781902313E+00   0.2133333384990692E+00   0.2199999988079071E+00   0.2266666740179062E+00   0.2333333343267441E+00   0.2400000095367432E+00   0.2466666698455811E+00   0.2533333301544189E+00   0.2600000202655792E+00   0.2666666805744171E+00   0.2733333408832550E+00   0.2800000011920929E+00   0.2866666615009308E+00   0.2933333516120911E+00   0.3000000119209290E+00   0.3066666722297668E+00   0.3133333325386047E+00   0.3199999928474426E+00   0.3266666829586029E+00   0.3333333432674408E+00   0.3400000035762787E+00   0.3466666638851166E+00   0.3533333539962769E+00   0.3600000143051147E+00   0.3666666746139526E+00   0.3733333349227905E+00   0.3799999952316284E+00   0.3866666853427887E+00   0.3933333456516266E+00   0.4000000059604645E+00   0.4066666662693024E+00   0.4133333563804626E+00   0.4200000166893005E+00   0.4266666769981384E+00   0.4333333373069763E+00   0.4399999976158142E+00   0.4466666877269745E+00   0.4533333480358124E+00   0.4600000083446503E+00   0.4666666686534882E+00   0.4733333587646484E+00   0.4800000190734863E+00   0.4866666793823242E+00   0.4933333396911621E+00   0.5000000000000000E+00   0.5066666603088379E+00   0.5133333206176758E+00   0.5200000405311584E+00   0.5266667008399963E+00   0.5333333611488342E+00   0.5400000214576721E+00   0.5466666817665100E+00   0.5533333420753479E+00   0.5600000023841858E+00   0.5666666626930237E+00   0.5733333230018616E+00   0.5800000429153442E+00   0.5866667032241821E+00   0.5933333635330200E+00   0.6000000238418579E+00   0.6066666841506958E+00   0.6133333444595337E+00   0.6200000047683716E+00   0.6266666650772095E+00   0.6333333253860474E+00
   0.6399999856948853E+00   0.6466667056083679E+00   0.6533333659172058E+00   0.6600000262260437E+00   0.6666666865348816E+00   0.6733333468437195E+00   0.6800000071525574E+00   0.6866666674613953E+00   0.6933333277702332E+00   0.6999999880790710E+00   0.7066667079925537E+00   0.7133333683013916E+00   0.7200000286102295E+00   0.7266666889190674E+00   0.7333333492279053E+00   0.7400000095367432E+00   0.7466666698455811E+00   0.7533333301544189E+00   0.7599999904632568E+00   0.7666667103767395E+00   0.7733333706855774E+00   0.7800000309944153E+00   0.7866666913032532E+00   0.7933333516120911E+00   0.8000000119209290E+00   0.8066666722297668E+00   0.8133333325386047E+00   0.8199999928474426E+00   0.8266667127609253E+00   0.8333333730697632E+00   0.8400000333786011E+00   0.8466666936874390E+00   0.8533333539962769E+00   0.8600000143051147E+00   0.8666666746139526E+00   0.8733333349227905E+00   0.8799999952316284E+00   0.8866667151451111E+00   0.8933333754539490E+00   0.9000000357627869E+00   0.9066666960716248E+00   0.9133333563804626E+00   0.9200000166893005E+00   0.9266666769981384E+00   0.9333333373069763E+00   0.9399999976158142E+00   0.9466667175292969E+00   0.9533333778381348E+00   0.9600000381469727E+00   0.9666666984558105E+00   0.9733333587646484E+00   0.9800000190734863E+00   0.9866666793823242E+00   0.9933333396911621E+00   0.1000000000000000E+01   0.0000000000000000E+00   0.6666666828095913E-02   0.1333333365619183E-01   0.1999999955296516E-01   0.2666666731238365E-01   0.3333333507180214E-01   0.3999999910593033E-01   0.4666666686534882E-01   0.5333333462476730E-01   0.6000000238418579E-01   0.6666667014360428E-01   0.7333333790302277E-01   0.7999999821186066E-01   0.8666666597127914E-01   0.9333333373069763E-01   0.1000000014901161E+00   0.1066666692495346E+00   0.1133333370089531E+00   0.1200000047683716E+00   0.1266666650772095E+00   0.1333333402872086E+00   0.1400000005960464E+00   0.1466666758060455E+00   0.1533333361148834E+00   0.1599999964237213E+00   0.1666666716337204E+00   0.1733333319425583E+00   0.1800000071525574E+00   0.1866666674613953E+00   0.1933333426713943E+00   0.2000000029802322E+00   0.2066666781902313E+00   0.2133333384990692E+00   0.2199999988079071E+00   0.2266666740179062E+00   0.2333333343267441E+00   0.2400000095367432E+00   0.2466666698455811E+00   0.2533333301544189E+00   0.2600000202655792E+00   0.2666666805744171E+00   0.2733333408832550E+00   0.2800000011920929E+00   0.2866666615009308E+00   0.2933333516120911E+00
   0.3000000119209290E+00   0.3066666722297668E+00   0.3133333325386047E+00   0.3199999928474426E+00   0.3266666829586029E+00   0.3333333432674408E+00   0.3400000035762787E+00   0.3466666638851166E+00   0.3533333539962769E+00   0.3600000143051147E+00   0.3666666746139526E+00   0.3733333349227905E+00   0.3799999952316284E+00   0.3866666853427887E+00   0.3933333456516266E+00   0.4000000059604645E+00   0.4066666662693024E+00   0.4133333563804626E+00   0.4200000166893005E+00   0.4266666769981384E+00   0.4333333373069763E+00   0.4399999976158142E+00   0.4466666877269745E+00   0.4533333480358124E+00   0.4600000083446503E+00   0.4666666686534882E+00   0.4733333587646484E+00   0.4800000190734863E+00   0.4866666793823242E+00   0.4933333396911621E+00   0.5000000000000000E+00   0.5066666603088379E+00   0.5133333206176758E+00   0.5200000405311584E+00   0.5266667008399963E+00   0.5333333611488342E+00   0.5400000214576721E+00   0.5466666817665100E+00   0.5533333420753479E+00   0.5600000023841858E+00   0.5666666626930237E+00   0.5733333230018616E+00   0.5800000429153442E+00   0.5866667032241821E+00   0.5933333635330200E+00   0.6000000238418579E+00   0.6066666841506958E+00   0.6133333444595337E+00   0.6200000047683716E+00   0.6266666650772095E+00   0.6333333253860474E+00   0.6399999856948853E+00   0.6466667056083679E+00   0.6533333659172058E+00   0.6600000262260437E+00   0.6666666865348816E+00   0.6733333468437195E+00   0.6800000071525574E+00   0.6866666674613953E+00   0.6933333277702332E+00   0.6999999880790710E+00   0.7066667079925537E+00   0.7133333683013916E+00   0.7200000286102295E+00   0.7266666889190674E+00   0.7333333492279053E+00   0.7400000095367432E+00   0.7466666698455811E+00   0.7533333301544189E+00   0.7599999904632568E+00   0.7666667103767395E+00   0.7733333706855774E+00   0.7800000309944153E+00   0.7866666913032532E+00   0.7933333516120911E+00   0.8000000119209290E+00   0.8066666722297668E+00   0.8133333325386047E+00   0.8199999928474426E+00   0.8266667127609253E+00   0.8333333730697632E+00   0.8400000333786011E+00   0.8466666936874390E+00   0.8533333539962769E+00   0.8600000143051147E+00   0.8666666746139526E+00   0.8733333349227905E+00   0.8799999952316284E+00   0.8866667151451111E+00   0.8933333754539490E+00   0.9000000357627869E+00   0.9066666960716248E+00   0.9133333563804626E+00   0.9200000166893005E+00   0.9266666769981384E+00   0.9333333373069763E+00   0.9399999976158142E+00   0.9466667175292969E+00   0.9533333778381348E+00   0.9600000381469727E+00
   0.9666666984558105E+00   0.9733333587646484E+00   0.9800000190734863E+00   0.9866666793823242E+00   0.9933333396911621E+00   0.1000000000000000E+01   0.0000000000000000E+00   0.6666666828095913E-02   0.1333333365619183E-01   0.1999999955296516E-01   0.2666666731238365E-01   0.3333333507180214E-01   0.3999999910593033E-01   0.4666666686534882E-01   0.5333333462476730E-01   0.6000000238418579E-01   0.6666667014360428E-01   0.7333333790302277E-01   0.7999999821186066E-01   0.8666666597127914E-01   0.9333333373069763E-01   0.1000000014901161E+00   0.1066666692495346E+00   0.1133333370089531E+00   0.1200000047683716E+00   0.1266666650772095E+00   0.1333333402872086E+00   0.1400000005960464E+00   0.1466666758060455E+00   0.1533333361148834E+00   0.1599999964237213E+00   0.1666666716337204E+00   0.1733333319425583E+00   0.1800000071525574E+00   0.1866666674613953E+00   0.1933333426713943E+00   0.2000000029802322E+00   0.2066666781902313E+00   0.2133333384990692E+00   0.2199999988079071E+00   0.2266666740179062E+00   0.2333333343267441E+00   0.2400000095367432E+00   0.2466666698455811E+00   0.2533333301544189E+00   0.2600000202655792E+00   0.2666666805744171E+00   0.2733333408832550E+00   0.2800000011920929E+00   0.2866666615009308E+00   0.2933333516120911E+00   0.3000000119209290E+00   0.3066666722297668E+00   0.3133333325386047E+00   0.3199999928474426E+00   0.3266666829586029E+00   0.3333333432674408E+00   0.3400000035762787E+00   0.3466666638851166E+00   0.3533333539962769E+00   0.3600000143051147E+00   0.3666666746139526E+00   0.3733333349227905E+00   0.3799999952316284E+00   0.3866666853427887E+00   0.3933333456516266E+00   0.4000000059604645E+00   0.4066666662693024E+00   0.4133333563804626E+00   0.4200000166893005E+00   0.4266666769981384E+00   0.4333333373069763E+00   0.4399999976158142E+00   0.4466666877269745E+00   0.4533333480358124E+00   0.4600000083446503E+00   0.4666666686534882E+00   0.4733333587646484E+00   0.4800000190734863E+00   0.4866666793823242E+00   0.4933333396911621E+00   0.5000000000000000E+00   0.5066666603088379E+00   0.5133333206176758E+00   0.5200000405311584E+00   0.5266667008399963E+00   0.5333333611488342E+00   0.5400000214576721E+00   0.5466666817665100E+00   0.5533333420753479E+00   0.5600000023841858E+00   0.5666666626930237E+00   0.5733333230018616E+00   0.5800000429153442E+00   0.5866667032241821E+00   0.5933333635330200E+00   0.6000000238418579E+00   0.6066666841506958E+00   0.6133333444595337E+00   0.6200000047683716E+00
   0.6266666650772095E+00   0.6333333253860474E+00   0.6399999856948853E+00   0.6466667056083679E+00   0.6533333659172058E+00   0.6600000262260437E+00   0.6666666865348816E+00   0.6733333468437195E+00   0.6800000071525574E+00   0.6866666674613953E+00   0.6933333277702332E+00   0.6999999880790710E+00   0.7066667079925537E+00   0.7133333683013916E+00   0.7200000286102295E+00   0.7266666889190674E+00   0.7333333492279053E+00   0.7400000095367432E+00   0.7466666698455811E+00   0.7533333301544189E+00   0.7599999904632568E+00   0.7666667103767395E+00   0.7733333706855774E+00   0.7800000309944153E+00   0.7866666913032532E+00   0.7933333516120911E+00   0.8000000119209290E+00   0.8066666722297668E+00   0.8133333325386047E+00   0.8199999928474426E+00   0.8266667127609253E+00   0.8333333730697632E+00   0.8400000333786011E+00   0.8466666936874390E+00   0.8533333539962769E+00   0.8600000143051147E+00   0.8666666746139526E+00   0.8733333349227905E+00   0.8799999952316284E+00   0.8866667151451111E+00   0.8933333754539490E+00   0.9000000357627869E+00   0.9066666960716248E+00   0.9133333563804626E+00   0.9200000166893005E+00   0.9266666769981384E+00   0.9333333373069763E+00   0.9399999976158142E+00   0.9466667175292969E+00   0.9533333778381348E+00   0.9600000381469727E+00   0.9666666984558105E+00   0.9733333587646484E+00   0.9800000190734863E+00   0.9866666793823242E+00   0.9933333396911621E+00   0.1000000000000000E+01   0.0000000000000000E+00   0.6666666828095913E-02   0.1333333365619183E-01   0.1999999955296516E-01   0.2666666731238365E-01   0.3333333507180214E-01   0.3999999910593033E-01   0.4666666686534882E-01   0.5333333462476730E-01   0.6000000238418579E-01   0.6666667014360428E-01   0.7333333790302277E-01   0.7999999821186066E-01   0.8666666597127914E-01   0.9333333373069763E-01   0.1000000014901161E+00   0.1066666692495346E+00   0.1133333370089531E+00   0.1200000047683716E+00   0.1266666650772095E+00   0.1333333402872086E+00   0.1400000005960464E+00   0.1466666758060455E+00   0.1533333361148834E+00   0.1599999964237213E+00   0.1666666716337204E+00   0.1733333319425583E+00   0.1800000071525574E+00   0.1866666674613953E+00   0.1933333426713943E+00   0.2000000029802322E+00   0.2066666781902313E+00   0.2133333384990692E+00   0.2199999988079071E+00   0.2266666740179062E+00   0.2333333343267441E+00   0.2400000095367432E+00   0.2466666698455811E+00   0.2533333301544189E+00   0.2600000202655792E+00   0.2666666805744171E+00   0.2733333408832550E+00   0.2800000011920929E+00