 VARIABLES = "X", "Y", "U", "V", "P", "RHO", "C_f" 
 ZONE I=          51 , J=          21 , DATAPACKING=BLOCK
   0.0000000000000000E+00   0.1999999955296516E-01   0.3999999910593033E-01   0.5999999865889549E-01   0.7999999821186066E-01   0.9999999403953552E-01   0.1199999973177910E+00   0.1400000005960464E+00   0.1599999964237213E+00   0.1799999922513962E+00   0.1999999880790710E+00   0.2199999988079071E+00   0.2399999946355820E+00   0.2599999904632568E+00   0.2800000011920929E+00   0.2999999821186066E+00   0.3199999928474426E+00   0.3400000035762787E+00   0.3599999845027924E+00   0.3799999952316284E+00   0.3999999761581421E+00   0.4199999868869781E+00   0.4399999976158142E+00   0.4599999785423279E+00   0.4799999892711639E+00   0.5000000000000000E+00   0.5199999809265137E+00   0.5399999618530273E+00   0.5600000023841858E+00   0.5799999833106995E+00   0.5999999642372131E+00   0.6200000047683716E+00   0.6399999856948853E+00   0.6599999666213989E+00   0.6800000071525574E+00   0.6999999880790710E+00   0.7199999690055847E+00   0.7400000095367432E+00   0.7599999904632568E+00   0.7799999713897705E+00   0.7999999523162842E+00   0.8199999928474426E+00   0.8399999737739563E+00   0.8599999547004700E+00   0.8799999952316284E+00   0.8999999761581421E+00   0.9199999570846558E+00   0.9399999976158142E+00   0.9599999785423279E+00   0.9799999594688416E+00   0.1000000000000000E+01   0.0000000000000000E+00   0.1999999955296516E-01   0.3999999910593033E-01   0.5999999865889549E-01   0.7999999821186066E-01   0.9999999403953552E-01   0.1199999973177910E+00   0.1400000005960464E+00   0.1599999964237213E+00   0.1799999922513962E+00   0.1999999880790710E+00   0.2199999988079071E+00   0.2399999946355820E+00   0.2599999904632568E+00   0.2800000011920929E+00   0.2999999821186066E+00   0.3199999928474426E+00   0.3400000035762787E+00   0.3599999845027924E+00   0.3799999952316284E+00   0.3999999761581421E+00   0.4199999868869781E+00   0.4399999976158142E+00   0.4599999785423279E+00   0.4799999892711639E+00   0.5000000000000000E+00   0.5199999809265137E+00   0.5399999618530273E+00   0.5600000023841858E+00   0.5799999833106995E+00   0.5999999642372131E+00   0.6200000047683716E+00   0.6399999856948853E+00   0.6599999666213989E+00   0.6800000071525574E+00   0.6999999880790710E+00   0.7199999690055847E+00   0.7400000095367432E+00   0.7599999904632568E+00   0.7799999713897705E+00   0.7999999523162842E+00   0.8199999928474426E+00   0.8399999737739563E+00   0.8599999547004700E+00   0.8799999952316284E+00   0.8999999761581421E+00   0.9199999570846558E+00   0.9399999976158142E+00   0.9599999785423279E+00
   0.9799999594688416E+00   0.1000000000000000E+01   0.0000000000000000E+00   0.1999999955296516E-01   0.3999999910593033E-01   0.5999999865889549E-01   0.7999999821186066E-01   0.9999999403953552E-01   0.1199999973177910E+00   0.1400000005960464E+00   0.1599999964237213E+00   0.1799999922513962E+00   0.1999999880790710E+00   0.2199999988079071E+00   0.2399999946355820E+00   0.2599999904632568E+00   0.2800000011920929E+00   0.2999999821186066E+00   0.3199999928474426E+00   0.3400000035762787E+00   0.3599999845027924E+00   0.3799999952316284E+00   0.3999999761581421E+00   0.4199999868869781E+00   0.4399999976158142E+00   0.4599999785423279E+00   0.4799999892711639E+00   0.5000000000000000E+00   0.5199999809265137E+00   0.5399999618530273E+00   0.5600000023841858E+00   0.5799999833106995E+00   0.5999999642372131E+00   0.6200000047683716E+00   0.6399999856948853E+00   0.6599999666213989E+00   0.6800000071525574E+00   0.6999999880790710E+00   0.7199999690055847E+00   0.7400000095367432E+00   0.7599999904632568E+00   0.7799999713897705E+00   0.7999999523162842E+00   0.8199999928474426E+00   0.8399999737739563E+00   0.8599999547004700E+00   0.8799999952316284E+00   0.8999999761581421E+00   0.9199999570846558E+00   0.9399999976158142E+00   0.9599999785423279E+00   0.9799999594688416E+00   0.1000000000000000E+01   0.0000000000000000E+00   0.1999999955296516E-01   0.3999999910593033E-01   0.5999999865889549E-01   0.7999999821186066E-01   0.9999999403953552E-01   0.1199999973177910E+00   0.1400000005960464E+00   0.1599999964237213E+00   0.1799999922513962E+00   0.1999999880790710E+00   0.2199999988079071E+00   0.2399999946355820E+00   0.2599999904632568E+00   0.2800000011920929E+00   0.2999999821186066E+00   0.3199999928474426E+00   0.3400000035762787E+00   0.3599999845027924E+00   0.3799999952316284E+00   0.3999999761581421E+00   0.4199999868869781E+00   0.4399999976158142E+00   0.4599999785423279E+00   0.4799999892711639E+00   0.5000000000000000E+00   0.5199999809265137E+00   0.5399999618530273E+00   0.5600000023841858E+00   0.5799999833106995E+00   0.5999999642372131E+00   0.6200000047683716E+00   0.6399999856948853E+00   0.6599999666213989E+00   0.6800000071525574E+00   0.6999999880790710E+00   0.7199999690055847E+00   0.7400000095367432E+00   0.7599999904632568E+00   0.7799999713897705E+00   0.7999999523162842E+00   0.8199999928474426E+00   0.8399999737739563E+00   0.8599999547004700E+00   0.8799999952316284E+00   0.8999999761581421E+00   0.9199999570846558E+00
   0.9399999976158142E+00   0.9599999785423279E+00   0.9799999594688416E+00   0.1000000000000000E+01   0.0000000000000000E+00   0.1999999955296516E-01   0.3999999910593033E-01   0.5999999865889549E-01   0.7999999821186066E-01   0.9999999403953552E-01   0.1199999973177910E+00   0.1400000005960464E+00   0.1599999964237213E+00   0.1799999922513962E+00   0.1999999880790710E+00   0.2199999988079071E+00   0.2399999946355820E+00   0.2599999904632568E+00   0.2800000011920929E+00   0.2999999821186066E+00   0.3199999928474426E+00   0.3400000035762787E+00   0.3599999845027924E+00   0.3799999952316284E+00   0.3999999761581421E+00   0.4199999868869781E+00   0.4399999976158142E+00   0.4599999785423279E+00   0.4799999892711639E+00   0.5000000000000000E+00   0.5199999809265137E+00   0.5399999618530273E+00   0.5600000023841858E+00   0.5799999833106995E+00   0.5999999642372131E+00   0.6200000047683716E+00   0.6399999856948853E+00   0.6599999666213989E+00   0.6800000071525574E+00   0.6999999880790710E+00   0.7199999690055847E+00   0.7400000095367432E+00   0.7599999904632568E+00   0.7799999713897705E+00   0.7999999523162842E+00   0.8199999928474426E+00   0.8399999737739563E+00   0.8599999547004700E+00   0.8799999952316284E+00   0.8999999761581421E+00   0.9199999570846558E+00   0.9399999976158142E+00   0.9599999785423279E+00   0.9799999594688416E+00   0.1000000000000000E+01   0.0000000000000000E+00   0.1999999955296516E-01   0.3999999910593033E-01   0.5999999865889549E-01   0.7999999821186066E-01   0.9999999403953552E-01   0.1199999973177910E+00   0.1400000005960464E+00   0.1599999964237213E+00   0.1799999922513962E+00   0.1999999880790710E+00   0.2199999988079071E+00   0.2399999946355820E+00   0.2599999904632568E+00   0.2800000011920929E+00   0.2999999821186066E+00   0.3199999928474426E+00   0.3400000035762787E+00   0.3599999845027924E+00   0.3799999952316284E+00   0.3999999761581421E+00   0.4199999868869781E+00   0.4399999976158142E+00   0.4599999785423279E+00   0.4799999892711639E+00   0.5000000000000000E+00   0.5199999809265137E+00   0.5399999618530273E+00   0.5600000023841858E+00   0.5799999833106995E+00   0.5999999642372131E+00   0.6200000047683716E+00   0.6399999856948853E+00   0.6599999666213989E+00   0.6800000071525574E+00   0.6999999880790710E+00   0.7199999690055847E+00   0.7400000095367432E+00   0.7599999904632568E+00   0.7799999713897705E+00   0.7999999523162842E+00   0.8199999928474426E+00   0.8399999737739563E+00   0.8599999547004700E+00   0.8799999952316284E+00
   0.8999999761581421E+00   0.9199999570846558E+00   0.9399999976158142E+00   0.9599999785423279E+00   0.9799999594688416E+00   0.1000000000000000E+01   0.0000000000000000E+00   0.1999999955296516E-01   0.3999999910593033E-01   0.5999999865889549E-01   0.7999999821186066E-01   0.9999999403953552E-01   0.1199999973177910E+00   0.1400000005960464E+00   0.1599999964237213E+00   0.1799999922513962E+00   0.1999999880790710E+00   0.2199999988079071E+00   0.2399999946355820E+00   0.2599999904632568E+00   0.2800000011920929E+00   0.2999999821186066E+00   0.3199999928474426E+00   0.3400000035762787E+00   0.3599999845027924E+00   0.3799999952316284E+00   0.3999999761581421E+00   0.4199999868869781E+00   0.4399999976158142E+00   0.4599999785423279E+00   0.4799999892711639E+00   0.5000000000000000E+00   0.5199999809265137E+00   0.5399999618530273E+00   0.5600000023841858E+00   0.5799999833106995E+00   0.5999999642372131E+00   0.6200000047683716E+00   0.6399999856948853E+00   0.6599999666213989E+00   0.6800000071525574E+00   0.6999999880790710E+00   0.7199999690055847E+00   0.7400000095367432E+00   0.7599999904632568E+00   0.7799999713897705E+00   0.7999999523162842E+00   0.8199999928474426E+00   0.8399999737739563E+00   0.8599999547004700E+00   0.8799999952316284E+00   0.8999999761581421E+00   0.9199999570846558E+00   0.9399999976158142E+00   0.9599999785423279E+00   0.9799999594688416E+00   0.1000000000000000E+01   0.0000000000000000E+00   0.1999999955296516E-01   0.3999999910593033E-01   0.5999999865889549E-01   0.7999999821186066E-01   0.9999999403953552E-01   0.1199999973177910E+00   0.1400000005960464E+00   0.1599999964237213E+00   0.1799999922513962E+00   0.1999999880790710E+00   0.2199999988079071E+00   0.2399999946355820E+00   0.2599999904632568E+00   0.2800000011920929E+00   0.2999999821186066E+00   0.3199999928474426E+00   0.3400000035762787E+00   0.3599999845027924E+00   0.3799999952316284E+00   0.3999999761581421E+00   0.4199999868869781E+00   0.4399999976158142E+00   0.4599999785423279E+00   0.4799999892711639E+00   0.5000000000000000E+00   0.5199999809265137E+00   0.5399999618530273E+00   0.5600000023841858E+00   0.5799999833106995E+00   0.5999999642372131E+00   0.6200000047683716E+00   0.6399999856948853E+00   0.6599999666213989E+00   0.6800000071525574E+00   0.6999999880790710E+00   0.7199999690055847E+00   0.7400000095367432E+00   0.7599999904632568E+00   0.7799999713897705E+00   0.7999999523162842E+00   0.8199999928474426E+00   0.8399999737739563E+00
   0.8599999547004700E+00   0.8799999952316284E+00   0.8999999761581421E+00   0.9199999570846558E+00   0.9399999976158142E+00   0.9599999785423279E+00   0.9799999594688416E+00   0.1000000000000000E+01   0.0000000000000000E+00   0.1999999955296516E-01   0.3999999910593033E-01   0.5999999865889549E-01   0.7999999821186066E-01   0.9999999403953552E-01   0.1199999973177910E+00   0.1400000005960464E+00   0.1599999964237213E+00   0.1799999922513962E+00   0.1999999880790710E+00   0.2199999988079071E+00   0.2399999946355820E+00   0.2599999904632568E+00   0.2800000011920929E+00   0.2999999821186066E+00   0.3199999928474426E+00   0.3400000035762787E+00   0.3599999845027924E+00   0.3799999952316284E+00   0.3999999761581421E+00   0.4199999868869781E+00   0.4399999976158142E+00   0.4599999785423279E+00   0.4799999892711639E+00   0.5000000000000000E+00   0.5199999809265137E+00   0.5399999618530273E+00   0.5600000023841858E+00   0.5799999833106995E+00   0.5999999642372131E+00   0.6200000047683716E+00   0.6399999856948853E+00   0.6599999666213989E+00   0.6800000071525574E+00   0.6999999880790710E+00   0.7199999690055847E+00   0.7400000095367432E+00   0.7599999904632568E+00   0.7799999713897705E+00   0.7999999523162842E+00   0.8199999928474426E+00   0.8399999737739563E+00   0.8599999547004700E+00   0.8799999952316284E+00   0.8999999761581421E+00   0.9199999570846558E+00   0.9399999976158142E+00   0.9599999785423279E+00   0.9799999594688416E+00   0.1000000000000000E+01   0.0000000000000000E+00   0.1999999955296516E-01   0.3999999910593033E-01   0.5999999865889549E-01   0.7999999821186066E-01   0.9999999403953552E-01   0.1199999973177910E+00   0.1400000005960464E+00   0.1599999964237213E+00   0.1799999922513962E+00   0.1999999880790710E+00   0.2199999988079071E+00   0.2399999946355820E+00   0.2599999904632568E+00   0.2800000011920929E+00   0.2999999821186066E+00   0.3199999928474426E+00   0.3400000035762787E+00   0.3599999845027924E+00   0.3799999952316284E+00   0.3999999761581421E+00   0.4199999868869781E+00   0.4399999976158142E+00   0.4599999785423279E+00   0.4799999892711639E+00   0.5000000000000000E+00   0.5199999809265137E+00   0.5399999618530273E+00   0.5600000023841858E+00   0.5799999833106995E+00   0.5999999642372131E+00   0.6200000047683716E+00   0.6399999856948853E+00   0.6599999666213989E+00   0.6800000071525574E+00   0.6999999880790710E+00   0.7199999690055847E+00   0.7400000095367432E+00   0.7599999904632568E+00   0.7799999713897705E+00   0.7999999523162842E+00
   0.8199999928474426E+00   0.8399999737739563E+00   0.8599999547004700E+00   0.8799999952316284E+00   0.8999999761581421E+00   0.9199999570846558E+00   0.9399999976158142E+00   0.9599999785423279E+00   0.9799999594688416E+00   0.1000000000000000E+01   0.0000000000000000E+00   0.1999999955296516E-01   0.3999999910593033E-01   0.5999999865889549E-01   0.7999999821186066E-01   0.9999999403953552E-01   0.1199999973177910E+00   0.1400000005960464E+00   0.1599999964237213E+00   0.1799999922513962E+00   0.1999999880790710E+00   0.2199999988079071E+00   0.2399999946355820E+00   0.2599999904632568E+00   0.2800000011920929E+00   0.2999999821186066E+00   0.3199999928474426E+00   0.3400000035762787E+00   0.3599999845027924E+00   0.3799999952316284E+00   0.3999999761581421E+00   0.4199999868869781E+00   0.4399999976158142E+00   0.4599999785423279E+00   0.4799999892711639E+00   0.5000000000000000E+00   0.5199999809265137E+00   0.5399999618530273E+00   0.5600000023841858E+00   0.5799999833106995E+00   0.5999999642372131E+00   0.6200000047683716E+00   0.6399999856948853E+00   0.6599999666213989E+00   0.6800000071525574E+00   0.6999999880790710E+00   0.7199999690055847E+00   0.7400000095367432E+00   0.7599999904632568E+00   0.7799999713897705E+00   0.7999999523162842E+00   0.8199999928474426E+00   0.8399999737739563E+00   0.8599999547004700E+00   0.8799999952316284E+00   0.8999999761581421E+00   0.9199999570846558E+00   0.9399999976158142E+00   0.9599999785423279E+00   0.9799999594688416E+00   0.1000000000000000E+01   0.0000000000000000E+00   0.1999999955296516E-01   0.3999999910593033E-01   0.5999999865889549E-01   0.7999999821186066E-01   0.9999999403953552E-01   0.1199999973177910E+00   0.1400000005960464E+00   0.1599999964237213E+00   0.1799999922513962E+00   0.1999999880790710E+00   0.2199999988079071E+00   0.2399999946355820E+00   0.2599999904632568E+00   0.2800000011920929E+00   0.2999999821186066E+00   0.3199999928474426E+00   0.3400000035762787E+00   0.3599999845027924E+00   0.3799999952316284E+00   0.3999999761581421E+00   0.4199999868869781E+00   0.4399999976158142E+00   0.4599999785423279E+00   0.4799999892711639E+00   0.5000000000000000E+00   0.5199999809265137E+00   0.5399999618530273E+00   0.5600000023841858E+00   0.5799999833106995E+00   0.5999999642372131E+00   0.6200000047683716E+00   0.6399999856948853E+00   0.6599999666213989E+00   0.6800000071525574E+00   0.6999999880790710E+00   0.7199999690055847E+00   0.7400000095367432E+00   0.7599999904632568E+00
   0.7799999713897705E+00   0.7999999523162842E+00   0.8199999928474426E+00   0.8399999737739563E+00   0.8599999547004700E+00   0.8799999952316284E+00   0.8999999761581421E+00   0.9199999570846558E+00   0.9399999976158142E+00   0.9599999785423279E+00   0.9799999594688416E+00   0.1000000000000000E+01   0.0000000000000000E+00   0.1999999955296516E-01   0.3999999910593033E-01   0.5999999865889549E-01   0.7999999821186066E-01   0.9999999403953552E-01   0.1199999973177910E+00   0.1400000005960464E+00   0.1599999964237213E+00   0.1799999922513962E+00   0.1999999880790710E+00   0.2199999988079071E+00   0.2399999946355820E+00   0.2599999904632568E+00   0.2800000011920929E+00   0.2999999821186066E+00   0.3199999928474426E+00   0.3400000035762787E+00   0.3599999845027924E+00   0.3799999952316284E+00   0.3999999761581421E+00   0.4199999868869781E+00   0.4399999976158142E+00   0.4599999785423279E+00   0.4799999892711639E+00   0.5000000000000000E+00   0.5199999809265137E+00   0.5399999618530273E+00   0.5600000023841858E+00   0.5799999833106995E+00   0.5999999642372131E+00   0.6200000047683716E+00   0.6399999856948853E+00   0.6599999666213989E+00   0.6800000071525574E+00   0.6999999880790710E+00   0.7199999690055847E+00   0.7400000095367432E+00   0.7599999904632568E+00   0.7799999713897705E+00   0.7999999523162842E+00   0.8199999928474426E+00   0.8399999737739563E+00   0.8599999547004700E+00   0.8799999952316284E+00   0.8999999761581421E+00   0.9199999570846558E+00   0.9399999976158142E+00   0.9599999785423279E+00   0.9799999594688416E+00   0.1000000000000000E+01   0.0000000000000000E+00   0.1999999955296516E-01   0.3999999910593033E-01   0.5999999865889549E-01   0.7999999821186066E-01   0.9999999403953552E-01   0.1199999973177910E+00   0.1400000005960464E+00   0.1599999964237213E+00   0.1799999922513962E+00   0.1999999880790710E+00   0.2199999988079071E+00   0.2399999946355820E+00   0.2599999904632568E+00   0.2800000011920929E+00   0.2999999821186066E+00   0.3199999928474426E+00   0.3400000035762787E+00   0.3599999845027924E+00   0.3799999952316284E+00   0.3999999761581421E+00   0.4199999868869781E+00   0.4399999976158142E+00   0.4599999785423279E+00   0.4799999892711639E+00   0.5000000000000000E+00   0.5199999809265137E+00   0.5399999618530273E+00   0.5600000023841858E+00   0.5799999833106995E+00   0.5999999642372131E+00   0.6200000047683716E+00   0.6399999856948853E+00   0.6599999666213989E+00   0.6800000071525574E+00   0.6999999880790710E+00   0.7199999690055847E+00
   0.7400000095367432E+00   0.7599999904632568E+00   0.7799999713897705E+00   0.7999999523162842E+00   0.8199999928474426E+00   0.8399999737739563E+00   0.8599999547004700E+00   0.8799999952316284E+00   0.8999999761581421E+00   0.9199999570846558E+00   0.9399999976158142E+00   0.9599999785423279E+00   0.9799999594688416E+00   0.1000000000000000E+01   0.0000000000000000E+00   0.1999999955296516E-01   0.3999999910593033E-01   0.5999999865889549E-01   0.7999999821186066E-01   0.9999999403953552E-01   0.1199999973177910E+00   0.1400000005960464E+00   0.1599999964237213E+00   0.1799999922513962E+00   0.1999999880790710E+00   0.2199999988079071E+00   0.2399999946355820E+00   0.2599999904632568E+00   0.2800000011920929E+00   0.2999999821186066E+00   0.3199999928474426E+00   0.3400000035762787E+00   0.3599999845027924E+00   0.3799999952316284E+00   0.3999999761581421E+00   0.4199999868869781E+00   0.4399999976158142E+00   0.4599999785423279E+00   0.4799999892711639E+00   0.5000000000000000E+00   0.5199999809265137E+00   0.5399999618530273E+00   0.5600000023841858E+00   0.5799999833106995E+00   0.5999999642372131E+00   0.6200000047683716E+00   0.6399999856948853E+00   0.6599999666213989E+00   0.6800000071525574E+00   0.6999999880790710E+00   0.7199999690055847E+00   0.7400000095367432E+00   0.7599999904632568E+00   0.7799999713897705E+00   0.7999999523162842E+00   0.8199999928474426E+00   0.8399999737739563E+00   0.8599999547004700E+00   0.8799999952316284E+00   0.8999999761581421E+00   0.9199999570846558E+00   0.9399999976158142E+00   0.9599999785423279E+00   0.9799999594688416E+00   0.1000000000000000E+01   0.0000000000000000E+00   0.1999999955296516E-01   0.3999999910593033E-01   0.5999999865889549E-01   0.7999999821186066E-01   0.9999999403953552E-01   0.1199999973177910E+00   0.1400000005960464E+00   0.1599999964237213E+00   0.1799999922513962E+00   0.1999999880790710E+00   0.2199999988079071E+00   0.2399999946355820E+00   0.2599999904632568E+00   0.2800000011920929E+00   0.2999999821186066E+00   0.3199999928474426E+00   0.3400000035762787E+00   0.3599999845027924E+00   0.3799999952316284E+00   0.3999999761581421E+00   0.4199999868869781E+00   0.4399999976158142E+00   0.4599999785423279E+00   0.4799999892711639E+00   0.5000000000000000E+00   0.5199999809265137E+00   0.5399999618530273E+00   0.5600000023841858E+00   0.5799999833106995E+00   0.5999999642372131E+00   0.6200000047683716E+00   0.6399999856948853E+00   0.6599999666213989E+00   0.6800000071525574E+00
   0.6999999880790710E+00   0.7199999690055847E+00   0.7400000095367432E+00   0.7599999904632568E+00   0.7799999713897705E+00   0.7999999523162842E+00   0.8199999928474426E+00   0.8399999737739563E+00   0.8599999547004700E+00   0.8799999952316284E+00   0.8999999761581421E+00   0.9199999570846558E+00   0.9399999976158142E+00   0.9599999785423279E+00   0.9799999594688416E+00   0.1000000000000000E+01   0.0000000000000000E+00   0.1999999955296516E-01   0.3999999910593033E-01   0.5999999865889549E-01   0.7999999821186066E-01   0.9999999403953552E-01   0.1199999973177910E+00   0.1400000005960464E+00   0.1599999964237213E+00   0.1799999922513962E+00   0.1999999880790710E+00   0.2199999988079071E+00   0.2399999946355820E+00   0.2599999904632568E+00   0.2800000011920929E+00   0.2999999821186066E+00   0.3199999928474426E+00   0.3400000035762787E+00   0.3599999845027924E+00   0.3799999952316284E+00   0.3999999761581421E+00   0.4199999868869781E+00   0.4399999976158142E+00   0.4599999785423279E+00   0.4799999892711639E+00   0.5000000000000000E+00   0.5199999809265137E+00   0.5399999618530273E+00   0.5600000023841858E+00   0.5799999833106995E+00   0.5999999642372131E+00   0.6200000047683716E+00   0.6399999856948853E+00   0.6599999666213989E+00   0.6800000071525574E+00   0.6999999880790710E+00   0.7199999690055847E+00   0.7400000095367432E+00   0.7599999904632568E+00   0.7799999713897705E+00   0.7999999523162842E+00   0.8199999928474426E+00   0.8399999737739563E+00   0.8599999547004700E+00   0.8799999952316284E+00   0.8999999761581421E+00   0.9199999570846558E+00   0.9399999976158142E+00   0.9599999785423279E+00   0.9799999594688416E+00   0.1000000000000000E+01   0.0000000000000000E+00   0.1999999955296516E-01   0.3999999910593033E-01   0.5999999865889549E-01   0.7999999821186066E-01   0.9999999403953552E-01   0.1199999973177910E+00   0.1400000005960464E+00   0.1599999964237213E+00   0.1799999922513962E+00   0.1999999880790710E+00   0.2199999988079071E+00   0.2399999946355820E+00   0.2599999904632568E+00   0.2800000011920929E+00   0.2999999821186066E+00   0.3199999928474426E+00   0.3400000035762787E+00   0.3599999845027924E+00   0.3799999952316284E+00   0.3999999761581421E+00   0.4199999868869781E+00   0.4399999976158142E+00   0.4599999785423279E+00   0.4799999892711639E+00   0.5000000000000000E+00   0.5199999809265137E+00   0.5399999618530273E+00   0.5600000023841858E+00   0.5799999833106995E+00   0.5999999642372131E+00   0.6200000047683716E+00   0.6399999856948853E+00
   0.6599999666213989E+00   0.6800000071525574E+00   0.6999999880790710E+00   0.7199999690055847E+00   0.7400000095367432E+00   0.7599999904632568E+00   0.7799999713897705E+00   0.7999999523162842E+00   0.8199999928474426E+00   0.8399999737739563E+00   0.8599999547004700E+00   0.8799999952316284E+00   0.8999999761581421E+00   0.9199999570846558E+00   0.9399999976158142E+00   0.9599999785423279E+00   0.9799999594688416E+00   0.1000000000000000E+01   0.0000000000000000E+00   0.1999999955296516E-01   0.3999999910593033E-01   0.5999999865889549E-01   0.7999999821186066E-01   0.9999999403953552E-01   0.1199999973177910E+00   0.1400000005960464E+00   0.1599999964237213E+00   0.1799999922513962E+00   0.1999999880790710E+00   0.2199999988079071E+00   0.2399999946355820E+00   0.2599999904632568E+00   0.2800000011920929E+00   0.2999999821186066E+00   0.3199999928474426E+00   0.3400000035762787E+00   0.3599999845027924E+00   0.3799999952316284E+00   0.3999999761581421E+00   0.4199999868869781E+00   0.4399999976158142E+00   0.4599999785423279E+00   0.4799999892711639E+00   0.5000000000000000E+00   0.5199999809265137E+00   0.5399999618530273E+00   0.5600000023841858E+00   0.5799999833106995E+00   0.5999999642372131E+00   0.6200000047683716E+00   0.6399999856948853E+00   0.6599999666213989E+00   0.6800000071525574E+00   0.6999999880790710E+00   0.7199999690055847E+00   0.7400000095367432E+00   0.7599999904632568E+00   0.7799999713897705E+00   0.7999999523162842E+00   0.8199999928474426E+00   0.8399999737739563E+00   0.8599999547004700E+00   0.8799999952316284E+00   0.8999999761581421E+00   0.9199999570846558E+00   0.9399999976158142E+00   0.9599999785423279E+00   0.9799999594688416E+00   0.1000000000000000E+01   0.0000000000000000E+00   0.1999999955296516E-01   0.3999999910593033E-01   0.5999999865889549E-01   0.7999999821186066E-01   0.9999999403953552E-01   0.1199999973177910E+00   0.1400000005960464E+00   0.1599999964237213E+00   0.1799999922513962E+00   0.1999999880790710E+00   0.2199999988079071E+00   0.2399999946355820E+00   0.2599999904632568E+00   0.2800000011920929E+00   0.2999999821186066E+00   0.3199999928474426E+00   0.3400000035762787E+00   0.3599999845027924E+00   0.3799999952316284E+00   0.3999999761581421E+00   0.4199999868869781E+00   0.4399999976158142E+00   0.4599999785423279E+00   0.4799999892711639E+00   0.5000000000000000E+00   0.5199999809265137E+00   0.5399999618530273E+00   0.5600000023841858E+00   0.5799999833106995E+00   0.5999999642372131E+00
   0.6200000047683716E+00   0.6399999856948853E+00   0.6599999666213989E+00   0.6800000071525574E+00   0.6999999880790710E+00   0.7199999690055847E+00   0.7400000095367432E+00   0.7599999904632568E+00   0.7799999713897705E+00   0.7999999523162842E+00   0.8199999928474426E+00   0.8399999737739563E+00   0.8599999547004700E+00   0.8799999952316284E+00   0.8999999761581421E+00   0.9199999570846558E+00   0.9399999976158142E+00   0.9599999785423279E+00   0.9799999594688416E+00   0.1000000000000000E+01   0.0000000000000000E+00   0.1999999955296516E-01   0.3999999910593033E-01   0.5999999865889549E-01   0.7999999821186066E-01   0.9999999403953552E-01   0.1199999973177910E+00   0.1400000005960464E+00   0.1599999964237213E+00   0.1799999922513962E+00   0.1999999880790710E+00   0.2199999988079071E+00   0.2399999946355820E+00   0.2599999904632568E+00   0.2800000011920929E+00   0.2999999821186066E+00   0.3199999928474426E+00   0.3400000035762787E+00   0.3599999845027924E+00   0.3799999952316284E+00   0.3999999761581421E+00   0.4199999868869781E+00   0.4399999976158142E+00   0.4599999785423279E+00   0.4799999892711639E+00   0.5000000000000000E+00   0.5199999809265137E+00   0.5399999618530273E+00   0.5600000023841858E+00   0.5799999833106995E+00   0.5999999642372131E+00   0.6200000047683716E+00   0.6399999856948853E+00   0.6599999666213989E+00   0.6800000071525574E+00   0.6999999880790710E+00   0.7199999690055847E+00   0.7400000095367432E+00   0.7599999904632568E+00   0.7799999713897705E+00   0.7999999523162842E+00   0.8199999928474426E+00   0.8399999737739563E+00   0.8599999547004700E+00   0.8799999952316284E+00   0.8999999761581421E+00   0.9199999570846558E+00   0.9399999976158142E+00   0.9599999785423279E+00   0.9799999594688416E+00   0.1000000000000000E+01
   0.0000000000000000E+00   0.0000000000000000E+00   0.0000000000000000E+00   0.0000000000000000E+00   0.0000000000000000E+00   0.0000000000000000E+00   0.0000000000000000E+00   0.0000000000000000E+00   0.0000000000000000E+00   0.0000000000000000E+00   0.0000000000000000E+00   0.0000000000000000E+00   0.0000000000000000E+00   0.0000000000000000E+00   0.0000000000000000E+00   0.0000000000000000E+00   0.0000000000000000E+00   0.0000000000000000E+00   0.0000000000000000E+00   0.0000000000000000E+00   0.0000000000000000E+00   0.0000000000000000E+00   0.0000000000000000E+00   0.0000000000000000E+00   0.0000000000000000E+00   0.0000000000000000E+00   0.0000000000000000E+00   0.0000000000000000E+00   0.0000000000000000E+00   0.0000000000000000E+00   0.0000000000000000E+00   0.0000000000000000E+00   0.0000000000000000E+00   0.0000000000000000E+00   0.0000000000000000E+00   0.0000000000000000E+00   0.0000000000000000E+00   0.0000000000000000E+00   0.0000000000000000E+00   0.0000000000000000E+00   0.0000000000000000E+00   0.0000000000000000E+00   0.0000000000000000E+00   0.0000000000000000E+00   0.0000000000000000E+00   0.0000000000000000E+00   0.0000000000000000E+00   0.0000000000000000E+00   0.0000000000000000E+00   0.0000000000000000E+00   0.0000000000000000E+00   0.4999999888241291E-02   0.4999999888241291E-02   0.4999999888241291E-02   0.4999999888241291E-02   0.4999999888241291E-02   0.4999999888241291E-02   0.4999999888241291E-02   0.4999999888241291E-02   0.4999999888241291E-02   0.4999999888241291E-02   0.4999999888241291E-02   0.4999999888241291E-02   0.4999999888241291E-02   0.4999999888241291E-02   0.4999999888241291E-02   0.4999999888241291E-02   0.4999999888241291E-02   0.4999999888241291E-02   0.4999999888241291E-02   0.4999999888241291E-02   0.4999999888241291E-02   0.4999999888241291E-02   0.4999999888241291E-02   0.4999999888241291E-02   0.4999999888241291E-02   0.4999999888241291E-02   0.4999999888241291E-02   0.4999999888241291E-02   0.4999999888241291E-02   0.4999999888241291E-02   0.4999999888241291E-02   0.4999999888241291E-02   0.4999999888241291E-02   0.4999999888241291E-02   0.4999999888241291E-02   0.4999999888241291E-02   0.4999999888241291E-02   0.4999999888241291E-02   0.4999999888241291E-02   0.4999999888241291E-02   0.4999999888241291E-02   0.4999999888241291E-02   0.4999999888241291E-02   0.4999999888241291E-02   0.4999999888241291E-02   0.4999999888241291E-02   0.4999999888241291E-02   0.4999999888241291E-02   0.4999999888241291E-02